
#(C) 2016 by FIZ Karlsruhe - Leibniz Institute for Information Infrastructure.  All rights reserved.
data_85084-ICSD
_database_code_ICSD 85084
_audit_creation_date 1999-06-02
_audit_update_record 2007-08-01
_chemical_name_systematic 'Tetraindium tritin(IV) oxide'
_chemical_formula_structural 'In4 Sn3 O12'
_chemical_formula_sum 'In4 O12 Sn3'
_chemical_name_structure_type Pr7O12
_exptl_crystal_density_diffrn 7.31
_publ_section_title

;
A structural study of tin-doped indium oxide (ITO) ceramics using (119)Sn
Moessbauer spectroscopy and neutron diffraction
;
loop_
_citation_id
_citation_journal_full
_citation_year
_citation_journal_volume
_citation_page_first
_citation_page_last
_citation_journal_id_ASTM
primary 'Key Engineering Materials' 1997 132 1373 1376 KEMAEY
loop_
_publ_author_name
'Nadaud, N.'
'Nanot, M.'
'Jove, J.'
'Roisnel, T.'
_cell_length_a 9.4604(2)
_cell_length_b 9.4604(2)
_cell_length_c 8.8584(2)
_cell_angle_alpha 90.
_cell_angle_beta 90.
_cell_angle_gamma 120.
_cell_volume 686.6
_cell_formula_units_Z 3
_symmetry_space_group_name_H-M 'R -3 H'
_symmetry_Int_Tables_number 148
_refine_ls_R_factor_all 0.044
loop_
_symmetry_equiv_pos_site_id
_symmetry_equiv_pos_as_xyz
1 'x-y, x, -z'
2 'y, -x+y, -z'
3 '-x, -y, -z'
4 '-x+y, -x, z'
5 '-y, x-y, z'
6 'x, y, z'
7 'x-y+2/3, x+1/3, -z+1/3'
8 'y+2/3, -x+y+1/3, -z+1/3'
9 '-x+2/3, -y+1/3, -z+1/3'
10 '-x+y+2/3, -x+1/3, z+1/3'
11 '-y+2/3, x-y+1/3, z+1/3'
12 'x+2/3, y+1/3, z+1/3'
13 'x-y+1/3, x+2/3, -z+2/3'
14 'y+1/3, -x+y+2/3, -z+2/3'
15 '-x+1/3, -y+2/3, -z+2/3'
16 '-x+y+1/3, -x+2/3, z+2/3'
17 '-y+1/3, x-y+2/3, z+2/3'
18 'x+1/3, y+2/3, z+2/3'
loop_
_atom_type_symbol
_atom_type_oxidation_number
Sn4+ 4
In3+ 3
O2- -2
loop_
_atom_site_label
_atom_site_type_symbol
_atom_site_symmetry_multiplicity
_atom_site_Wyckoff_symbol
_atom_site_fract_x
_atom_site_fract_y
_atom_site_fract_z
_atom_site_B_iso_or_equiv
_atom_site_occupancy
_atom_site_attached_hydrogens
Sn1 Sn4+ 3 a 0 0 0 0.54(6) 1. 0
Sn2 Sn4+ 18 f 0.2526(2) 0.2145(2) 0.3497(2) 0.47(4) 0.333 0
In2 In3+ 18 f 0.2526(2) 0.2145(2) 0.3497(2) 0.47(4) 0.667 0
O1 O2- 18 f 0.1979(2) 0.1768(2) 0.1162(2) 0.96(4) 1. 0
O2 O2- 18 f 0.1886(3) 0.9745(2) 0.3917(2) 0.82(3) 1. 0
#End of TTdata_85084-ICSD