
#(C) 2015 by Fachinformationszentrum Karlsruhe.  All rights reserved.
data_50847-ICSD
_database_code_ICSD 50847
_audit_creation_date 2000-12-16
_chemical_name_systematic 'Indium tin oxide (1.94/0.06/3)'
_chemical_formula_structural '(In1.94 Sn0.06) O3'
_chemical_formula_sum 'In1.94 O3 Sn0.06'
_chemical_name_structure_type Bixbyite-Mn2O3
_exptl_crystal_density_diffrn 7.12
_publ_section_title
'Structural studies of tin-doped indium oxide (ITO) and In4 Sn3 O12'
loop_
_citation_id
_citation_journal_full
_citation_year
_citation_journal_volume
_citation_page_first
_citation_page_last
_citation_journal_id_ASTM
primary 'Journal of Solid State Chemistry' 1998 135 140 148 JSSCBI
loop_
_publ_author_name
'Nadaud, N.'
'Lequeux, N.'
'Nanot, M.'
'Jove, J.'
'Roisnel, T.'
_cell_length_a 10.1234(2)
_cell_length_b 10.1234(2)
_cell_length_c 10.1234(2)
_cell_angle_alpha 90.
_cell_angle_beta 90.
_cell_angle_gamma 90.
_cell_volume 1037.48
_cell_formula_units_Z 16
_symmetry_space_group_name_H-M 'I a -3'
_symmetry_Int_Tables_number 206
_refine_ls_R_factor_all 0.037
loop_
_symmetry_equiv_pos_site_id
_symmetry_equiv_pos_as_xyz
1 '-z, x, y+1/2'
2 'z, x+1/2, -y'
3 'z+1/2, -x, y'
4 '-z, -x, -y'
5 'y+1/2, -z, x'
6 '-y, z, x+1/2'
7 'y, z+1/2, -x'
8 '-y, -z, -x'
9 'x, y+1/2, -z'
10 'x+1/2, -y, z'
11 '-x, y, z+1/2'
12 '-x, -y, -z'
13 'z, -x, -y+1/2'
14 '-z, -x+1/2, y'
15 '-z+1/2, x, -y'
16 'z, x, y'
17 '-y+1/2, z, -x'
18 'y, -z, -x+1/2'
19 '-y, -z+1/2, x'
20 'y, z, x'
21 '-x, -y+1/2, z'
22 '-x+1/2, y, -z'
23 'x, -y, -z+1/2'
24 'x, y, z'
25 '-z+1/2, x+1/2, y'
26 'z+1/2, x, -y+1/2'
27 'z, -x+1/2, y+1/2'
28 '-z+1/2, -x+1/2, -y+1/2'
29 'y, -z+1/2, x+1/2'
30 '-y+1/2, z+1/2, x'
31 'y+1/2, z, -x+1/2'
32 '-y+1/2, -z+1/2, -x+1/2'
33 'x+1/2, y, -z+1/2'
34 'x, -y+1/2, z+1/2'
35 '-x+1/2, y+1/2, z'
36 '-x+1/2, -y+1/2, -z+1/2'
37 'z+1/2, -x+1/2, -y'
38 '-z+1/2, -x, y+1/2'
39 '-z, x+1/2, -y+1/2'
40 'z+1/2, x+1/2, y+1/2'
41 '-y, z+1/2, -x+1/2'
42 'y+1/2, -z+1/2, -x'
43 '-y+1/2, -z, x+1/2'
44 'y+1/2, z+1/2, x+1/2'
45 '-x+1/2, -y, z+1/2'
46 '-x, y+1/2, -z+1/2'
47 'x+1/2, -y+1/2, -z'
48 'x+1/2, y+1/2, z+1/2'
loop_
_atom_type_symbol
_atom_type_oxidation_number
In 3
Sn 3
In 3
Sn 3
O -2
loop_
_atom_site_label
_atom_site_type_symbol
_atom_site_symmetry_multiplicity
_atom_site_Wyckoff_symbol
_atom_site_fract_x
_atom_site_fract_y
_atom_site_fract_z
_atom_site_B_iso_or_equiv
_atom_site_occupancy
_atom_site_attached_hydrogens
In1 In 8 b 0.25 0.25 0.25 0.38(13) 0.97 0
Sn1 Sn 8 b 0.25 0.25 0.25 0.38(13) 0.03 0
In2 In 24 d 0.4673(2) 0 0.25 0.31(5) 0.97 0
Sn2 Sn 24 d 0.4673(2) 0 0.25 0.31(5) 0.03 0
O1 O 48 e 0.3899(2) 0.1547(2) 0.3821(2) 0.50(2) 1. 0
O2 O 16 c 0.125 0.125 0.125 0.50(2) 0.008 0
#End of TTdata_50847-ICSD
