#(C) 2016 by FIZ Karlsruhe - Leibniz Institute for Information Infrastructure.  All rights reserved.
data_192300-ICSD
_database_code_ICSD 192300
_audit_creation_date 2015-02-01
_chemical_name_systematic 'Barium sodium iron arsenide (0.7/0.3/2/2)'
_chemical_formula_structural '(Ba0.7 Na0.3) Fe2 As2'
_chemical_formula_sum 'As2 Ba0.7 Fe2 Na0.3'
_chemical_name_structure_type BaZn2P2
_exptl_crystal_density_diffrn 6.07
_cell_measurement_temperature 4.
_publ_section_title
'Structural, magnetic, and superconducting properties of Ba1-x Nax Fe2 As2'
loop_
_citation_id
_citation_journal_full
_citation_year
_citation_journal_volume
_citation_page_first
_citation_page_last
_citation_journal_id_ASTM
primary 'Physical Review, Serie 3. B - Condensed Matter (18,1978-)' 2013 88
094510-1 094510-8 PRBMDO
loop_
_publ_author_name
'Avci, S.'
'Allred, J.M.'
'Chmaissem, O.'
'Chung, D.Y.'
'Rosenkranz, S.'
'Schlueter, J.A.'
'Claus, H.'
'Daoud-Aladine, A.'
'Khalyavin, D.D.'
'Manuel, P.'
'Llobet, A.'
'Suchomel, M.R.'
'Kanatzidis, M.G.'
'Osborn, R.'
_cell_length_a 3.93(2)
_cell_length_b 3.93(2)
_cell_length_c 12.37(6)
_cell_angle_alpha 90.
_cell_angle_beta 90.
_cell_angle_gamma 90.
_cell_volume 199.57
_cell_formula_units_Z 2
_symmetry_space_group_name_H-M 'I 4/m m m'
_symmetry_Int_Tables_number 139
loop_
_symmetry_equiv_pos_site_id
_symmetry_equiv_pos_as_xyz
1 'y, x, -z'
2 '-y, -x, -z'
3 '-y, x, -z'
4 'y, -x, -z'
5 '-x, y, -z'
6 'x, -y, -z'
7 'x, y, -z'
8 '-x, -y, -z'
9 '-y, -x, z'
10 'y, x, z'
11 'y, -x, z'
12 '-y, x, z'
13 'x, -y, z'
14 '-x, y, z'
15 '-x, -y, z'
16 'x, y, z'
17 'y+1/2, x+1/2, -z+1/2'
18 '-y+1/2, -x+1/2, -z+1/2'
19 '-y+1/2, x+1/2, -z+1/2'
20 'y+1/2, -x+1/2, -z+1/2'
21 '-x+1/2, y+1/2, -z+1/2'
22 'x+1/2, -y+1/2, -z+1/2'
23 'x+1/2, y+1/2, -z+1/2'
24 '-x+1/2, -y+1/2, -z+1/2'
25 '-y+1/2, -x+1/2, z+1/2'
26 'y+1/2, x+1/2, z+1/2'
27 'y+1/2, -x+1/2, z+1/2'
28 '-y+1/2, x+1/2, z+1/2'
29 'x+1/2, -y+1/2, z+1/2'
30 '-x+1/2, y+1/2, z+1/2'
31 '-x+1/2, -y+1/2, z+1/2'
32 'x+1/2, y+1/2, z+1/2'
loop_
_atom_type_symbol
_atom_type_oxidation_number
Sr2+ 2
Na1+ 1
Fe2+ 2.15
As3- -3
loop_
_atom_site_label
_atom_site_type_symbol
_atom_site_symmetry_multiplicity
_atom_site_Wyckoff_symbol
_atom_site_fract_x
_atom_site_fract_y
_atom_site_fract_z
_atom_site_B_iso_or_equiv
_atom_site_occupancy
_atom_site_attached_hydrogens
Sr1 Sr 2 a 0 0 0 0.5 1. 0
Fe1 Fe 4 d 0 0.5 0.25 0.5 1. 0
As1 As 4 e 0 0 0.360(17) 0.5 1. 0
#End of TTdata_192300-ICSD
