data_52250-ICSD
_audit_creation_method         'generated by CrystalMaker 9.0.3'
_publ_section_comment
;
ICSD code: 52250


Systematic name: Platinum

Structural formula: Pt

Chemical formula (sum): Pt1


Crystal structure data from: Owen, E.A., Yates, E.L. Precision measuremen
ts of crystal parameters. 

;
_cell_length_a                   3.9237(3)
_cell_length_b                   3.9237(0)
_cell_length_c                   3.9237(0)
_cell_angle_alpha               90.0000(0)
_cell_angle_beta                90.0000(0)
_cell_angle_gamma               90.0000(0)

_symmetry_space_group_name_H-M     'F m -3 m'
_symmetry_Int_Tables_number         225
_symmetry_cell_setting             cubic
loop_
_symmetry_equiv_pos_as_xyz
'+x,+y,+z'
'+x,1/2+y,1/2+z'
'1/2+x,1/2+y,+z'
'1/2+x,+y,1/2+z'
'+z,+x,+y'
'+z,1/2+x,1/2+y'
'1/2+z,1/2+x,+y'
'1/2+z,+x,1/2+y'
'+y,+z,+x'
'+y,1/2+z,1/2+x'
'1/2+y,1/2+z,+x'
'1/2+y,+z,1/2+x'
'+x,+y,-z'
'+x,1/2+y,1/2-z'
'1/2+x,1/2+y,-z'
'1/2+x,+y,1/2-z'
'+z,+x,-y'
'+z,1/2+x,1/2-y'
'1/2+z,1/2+x,-y'
'1/2+z,+x,1/2-y'
'+y,+z,-x'
'+y,1/2+z,1/2-x'
'1/2+y,1/2+z,-x'
'1/2+y,+z,1/2-x'
'-x,+y,+z'
'-x,1/2+y,1/2+z'
'1/2-x,1/2+y,+z'
'1/2-x,+y,1/2+z'
'-z,+x,+y'
'-z,1/2+x,1/2+y'
'1/2-z,1/2+x,+y'
'1/2-z,+x,1/2+y'
'-y,+z,+x'
'-y,1/2+z,1/2+x'
'1/2-y,1/2+z,+x'
'1/2-y,+z,1/2+x'
'-x,+y,-z'
'-x,1/2+y,1/2-z'
'1/2-x,1/2+y,-z'
'1/2-x,+y,1/2-z'
'-z,+x,-y'
'-z,1/2+x,1/2-y'
'1/2-z,1/2+x,-y'
'1/2-z,+x,1/2-y'
'-y,+z,-x'
'-y,1/2+z,1/2-x'
'1/2-y,1/2+z,-x'
'1/2-y,+z,1/2-x'
'+y,+x,+z'
'+y,1/2+x,1/2+z'
'1/2+y,1/2+x,+z'
'1/2+y,+x,1/2+z'
'+x,+z,+y'
'+x,1/2+z,1/2+y'
'1/2+x,1/2+z,+y'
'1/2+x,+z,1/2+y'
'+z,+y,+x'
'+z,1/2+y,1/2+x'
'1/2+z,1/2+y,+x'
'1/2+z,+y,1/2+x'
'+y,+x,-z'
'+y,1/2+x,1/2-z'
'1/2+y,1/2+x,-z'
'1/2+y,+x,1/2-z'
'+x,+z,-y'
'+x,1/2+z,1/2-y'
'1/2+x,1/2+z,-y'
'1/2+x,+z,1/2-y'
'+z,+y,-x'
'+z,1/2+y,1/2-x'
'1/2+z,1/2+y,-x'
'1/2+z,+y,1/2-x'
'+y,-x,+z'
'+y,1/2-x,1/2+z'
'1/2+y,1/2-x,+z'
'1/2+y,-x,1/2+z'
'+x,-z,+y'
'+x,1/2-z,1/2+y'
'1/2+x,1/2-z,+y'
'1/2+x,-z,1/2+y'
'+z,-y,+x'
'+z,1/2-y,1/2+x'
'1/2+z,1/2-y,+x'
'1/2+z,-y,1/2+x'
'+y,-x,-z'
'+y,1/2-x,1/2-z'
'1/2+y,1/2-x,-z'
'1/2+y,-x,1/2-z'
'+x,-z,-y'
'+x,1/2-z,1/2-y'
'1/2+x,1/2-z,-y'
'1/2+x,-z,1/2-y'
'+z,-y,-x'
'+z,1/2-y,1/2-x'
'1/2+z,1/2-y,-x'
'1/2+z,-y,1/2-x'
'-x,-y,-z'
'-x,1/2-y,1/2-z'
'1/2-x,1/2-y,-z'
'1/2-x,-y,1/2-z'
'-z,-x,-y'
'-z,1/2-x,1/2-y'
'1/2-z,1/2-x,-y'
'1/2-z,-x,1/2-y'
'-y,-z,-x'
'-y,1/2-z,1/2-x'
'1/2-y,1/2-z,-x'
'1/2-y,-z,1/2-x'
'-x,-y,+z'
'-x,1/2-y,1/2+z'
'1/2-x,1/2-y,+z'
'1/2-x,-y,1/2+z'
'-z,-x,+y'
'-z,1/2-x,1/2+y'
'1/2-z,1/2-x,+y'
'1/2-z,-x,1/2+y'
'-y,-z,+x'
'-y,1/2-z,1/2+x'
'1/2-y,1/2-z,+x'
'1/2-y,-z,1/2+x'
'+x,-y,-z'
'+x,1/2-y,1/2-z'
'1/2+x,1/2-y,-z'
'1/2+x,-y,1/2-z'
'+z,-x,-y'
'+z,1/2-x,1/2-y'
'1/2+z,1/2-x,-y'
'1/2+z,-x,1/2-y'
'+y,-z,-x'
'+y,1/2-z,1/2-x'
'1/2+y,1/2-z,-x'
'1/2+y,-z,1/2-x'
'+x,-y,+z'
'+x,1/2-y,1/2+z'
'1/2+x,1/2-y,+z'
'1/2+x,-y,1/2+z'
'+z,-x,+y'
'+z,1/2-x,1/2+y'
'1/2+z,1/2-x,+y'
'1/2+z,-x,1/2+y'
'+y,-z,+x'
'+y,1/2-z,1/2+x'
'1/2+y,1/2-z,+x'
'1/2+y,-z,1/2+x'
'-y,-x,-z'
'-y,1/2-x,1/2-z'
'1/2-y,1/2-x,-z'
'1/2-y,-x,1/2-z'
'-x,-z,-y'
'-x,1/2-z,1/2-y'
'1/2-x,1/2-z,-y'
'1/2-x,-z,1/2-y'
'-z,-y,-x'
'-z,1/2-y,1/2-x'
'1/2-z,1/2-y,-x'
'1/2-z,-y,1/2-x'
'-y,-x,+z'
'-y,1/2-x,1/2+z'
'1/2-y,1/2-x,+z'
'1/2-y,-x,1/2+z'
'-x,-z,+y'
'-x,1/2-z,1/2+y'
'1/2-x,1/2-z,+y'
'1/2-x,-z,1/2+y'
'-z,-y,+x'
'-z,1/2-y,1/2+x'
'1/2-z,1/2-y,+x'
'1/2-z,-y,1/2+x'
'-y,+x,-z'
'-y,1/2+x,1/2-z'
'1/2-y,1/2+x,-z'
'1/2-y,+x,1/2-z'
'-x,+z,-y'
'-x,1/2+z,1/2-y'
'1/2-x,1/2+z,-y'
'1/2-x,+z,1/2-y'
'-z,+y,-x'
'-z,1/2+y,1/2-x'
'1/2-z,1/2+y,-x'
'1/2-z,+y,1/2-x'
'-y,+x,+z'
'-y,1/2+x,1/2+z'
'1/2-y,1/2+x,+z'
'1/2-y,+x,1/2+z'
'-x,+z,+y'
'-x,1/2+z,1/2+y'
'1/2-x,1/2+z,+y'
'1/2-x,+z,1/2+y'
'-z,+y,+x'
'-z,1/2+y,1/2+x'
'1/2-z,1/2+y,+x'
'1/2-z,+y,1/2+x'

loop_
_atom_site_label
_atom_site_type_symbol
_atom_site_occupancy
_atom_site_fract_x
_atom_site_fract_y
_atom_site_fract_z
_atom_site_U_iso_or_equiv
   Pt1    Pt 1.0000      0.0000    0.0000    0.0000    0.1000

