#(C) 2016 by FIZ Karlsruhe - Leibniz Institute for Information Infrastructure.  All rights reserved.
data_417000-ICSD
_database_code_ICSD 417000
_audit_creation_date 2008-02-01
_chemical_name_systematic 'Barium dizinc diarsenide - beta'
_chemical_formula_structural 'Ba Zn2 As2'
_chemical_formula_sum 'As2 Ba1 Zn2'
_chemical_name_structure_type BaZn2P2
_exptl_crystal_density_diffrn 6.02
_publ_section_title

;
Neue Arsenide mit Th Cr2 Si2- oder einer damit verwandten Struktur: Die
Verbindungen A Rh2 As2 (A: Eu,Sr,Ba) und Ba Zn2 As2
;
loop_
_citation_id
_citation_journal_full
_citation_year
_citation_journal_volume
_citation_page_first
_citation_page_last
_citation_journal_id_ASTM
primary 'Zeitschrift fuer Naturforschung, B: Chemical Sciences' 2007 62 155 161
ZNBSEN
loop_
_publ_author_name
'Hellmann, A.'
'Loehken, A.'
'Wurth, A.'
'Mewis, A.'
_cell_length_a 4.1200(10)
_cell_length_b 4.1200(10)
_cell_length_c 13.5780(10)
_cell_angle_alpha 90.
_cell_angle_beta 90.
_cell_angle_gamma 90.
_cell_volume 230.48
_cell_formula_units_Z 2
_symmetry_space_group_name_H-M 'I 4/m m m'
_symmetry_Int_Tables_number 139
_refine_ls_R_factor_all 0.041
loop_
_symmetry_equiv_pos_site_id
_symmetry_equiv_pos_as_xyz
1 'y, x, -z'
2 '-y, -x, -z'
3 '-y, x, -z'
4 'y, -x, -z'
5 '-x, y, -z'
6 'x, -y, -z'
7 'x, y, -z'
8 '-x, -y, -z'
9 '-y, -x, z'
10 'y, x, z'
11 'y, -x, z'
12 '-y, x, z'
13 'x, -y, z'
14 '-x, y, z'
15 '-x, -y, z'
16 'x, y, z'
17 'y+1/2, x+1/2, -z+1/2'
18 '-y+1/2, -x+1/2, -z+1/2'
19 '-y+1/2, x+1/2, -z+1/2'
20 'y+1/2, -x+1/2, -z+1/2'
21 '-x+1/2, y+1/2, -z+1/2'
22 'x+1/2, -y+1/2, -z+1/2'
23 'x+1/2, y+1/2, -z+1/2'
24 '-x+1/2, -y+1/2, -z+1/2'
25 '-y+1/2, -x+1/2, z+1/2'
26 'y+1/2, x+1/2, z+1/2'
27 'y+1/2, -x+1/2, z+1/2'
28 '-y+1/2, x+1/2, z+1/2'
29 'x+1/2, -y+1/2, z+1/2'
30 '-x+1/2, y+1/2, z+1/2'
31 '-x+1/2, -y+1/2, z+1/2'
32 'x+1/2, y+1/2, z+1/2'
loop_
_atom_type_symbol
_atom_type_oxidation_number
Ba0+ 0
Zn0+ 0
As0+ 0
loop_
_atom_site_label
_atom_site_type_symbol
_atom_site_symmetry_multiplicity
_atom_site_Wyckoff_symbol
_atom_site_fract_x
_atom_site_fract_y
_atom_site_fract_z
_atom_site_B_iso_or_equiv
_atom_site_occupancy
_atom_site_attached_hydrogens
Ba1 Ba0+ 2 a 0. 0. 0. 0.0153(4) 1 0
Zn1 Zn0+ 4 d 0. 0.5 0.25 0.0123(3) 1 0
As1 As0+ 4 e 0. 0. 0.3635(1) 0.0097(3) 1 0
loop_
_atom_site_aniso_label
_atom_site_aniso_type_symbol
_atom_site_aniso_U_11
_atom_site_aniso_U_22
_atom_site_aniso_U_33
_atom_site_aniso_U_12
_atom_site_aniso_U_13
_atom_site_aniso_U_23
Ba1 Ba0+ 0.0140(3) 0.0140(3) 0.0178(4) 0. 0. 0.
Zn1 Zn0+ 0.0125(3) 0.0125(3) 0.0120(4) 0. 0. 0.
As1 As0+ 0.0106(3) 0.0106(3) 0.0078(4) 0. 0. 0.
#End of TTdata_417000-ICSD