data_41491-ICSD
_audit_creation_method         'generated by CrystalMaker X for macOS'
_cell_length_a                   4.3
_cell_length_b                   4.3
_cell_length_c                   7.0
_cell_angle_alpha               90.000000
_cell_angle_beta                90.000000
_cell_angle_gamma              120.000000

_symmetry_space_group_name_H-M     'P 63 m c'

loop_
_symmetry_equiv_pos_as_xyz
'+x,+y,+z'
'-y,+x-y,+z'
'-x+y,-x,+z'
'-x,-y,1/2+z'
'+y,-x+y,1/2+z'
'+x-y,+x,1/2+z'
'-y,-x,+z'
'-x+y,+y,+z'
'+x,+x-y,+z'
'+y,+x,1/2+z'
'+x-y,-y,1/2+z'
'-x,-x+y,1/2+z'

loop_
_atom_site_label
_atom_site_type_symbol
_atom_site_fract_x
_atom_site_fract_y
_atom_site_fract_z
_atom_site_U_iso_or_equiv
_atom_site_adp_type
_atom_site_occupancy
 Cd1  Cd	0.66667  0.33333  0.0	0.005	Uiso	1
 Se1  Se	0.66667  0.33333  0.375	0.005	Uiso	1

